 VARIABLES = XP YP
 ZONE T = "18581118.000000", N =         219 , E=          288 
 , F=FEPOINT, ET=Triangle
          0.0000         0.0000         0.0000         0.0000         0.0000         0.0000         0.0000         0.0000         0.0000         0.0000         0.0000         0.0000         0.0000         0.0000         0.0000         0.0000         0.0000         0.0000         0.0000         0.0010         0.0000         0.0000         0.0000         0.0000         0.0000         0.0000         0.0000
          0.0000         0.0000         0.0000         0.0000
          0.0000         0.1250         0.0000         0.0000         0.0000         0.0000         0.0000         0.0000         0.0000         0.0000         0.0000         0.0000         0.0000         0.0000         0.0000         0.0000         0.0000         0.0000         0.0000         0.0010         0.0000         0.0000         0.0000         0.0000         0.0000         0.0000         0.0000
          0.0000         0.0000         0.0000         0.0000
          0.0000         0.2500         0.0000         0.0000         0.0000         0.0000         0.0000         0.0000         0.0000         0.0000         0.0000         0.0000         0.0000         0.0000         0.0000         0.0000         0.0000         0.0000         0.0000         0.0010         0.0000         0.0000         0.0000         0.0000         0.0000         0.0000         0.0000
          0.0000         0.0000         0.0000         0.0000
          0.1250         0.0000         0.0000         0.0000         0.0000         0.0000         0.0000         0.0000         0.0000         0.0000         0.0000         0.0000         0.0000         0.0000         0.0000         0.0000         0.0000         0.0000         0.0000         0.0125         0.0000         0.0000         0.0000         0.0000         0.0000         0.0000         0.0000
          0.0000         0.0000         0.0000         0.0000
          0.1250         0.1250         0.0000         0.0000         0.0000         0.0000         0.0000         0.0000         0.0000         0.0000         0.0000         0.0000         0.0000         0.0000         0.0000         0.0000         0.0000         0.0000         0.0000         0.0125         0.0000         0.0000         0.0000         0.0000         0.0000         0.0000         0.0000
          0.0000         0.0000         0.0000         0.0000
          0.1250         0.2500         0.0000         0.0000         0.0000         0.0000         0.0000         0.0000         0.0000         0.0000         0.0000         0.0000         0.0000         0.0000         0.0000         0.0000         0.0000         0.0000         0.0000         0.0125         0.0000         0.0000         0.0000         0.0000         0.0000         0.0000         0.0000
          0.0000         0.0000         0.0000         0.0000
          0.2500         0.0000         0.0000         0.0000         0.0000         0.0000         0.0000         0.0000         0.0000         0.0000         0.0000         0.0000         0.0000         0.0000         0.0000         0.0000         0.0000         0.0000         0.0000         0.0250         0.0000         0.0000         0.0000         0.0000         0.0000         0.0000         0.0000
          0.0000         0.0000         0.0000         0.0000
          0.2500         0.1250         0.0000         0.0000         0.0000         0.0000         0.0000         0.0000         0.0000         0.0000         0.0000         0.0000         0.0000         0.0000         0.0000         0.0000         0.0000         0.0000         0.0000         0.0250         0.0000         0.0000         0.0000         0.0000         0.0000         0.0000         0.0000
          0.0000         0.0000         0.0000         0.0000
          0.2500         0.2500         0.0000         0.0000         0.0000         0.0000         0.0000         0.0000         0.0000         0.0000         0.0000         0.0000         0.0000         0.0000         0.0000         0.0000         0.0000         0.0000         0.0000         0.0250         0.0000         0.0000         0.0000         0.0000         0.0000         0.0000         0.0000
          0.0000         0.0000         0.0000         0.0000
          0.3750         0.0000         0.0000         0.0000         0.0000         0.0000         0.0000         0.0000         0.0000         0.0000         0.0000         0.0000         0.0000         0.0000         0.0000         0.0000         0.0000         0.0000         0.0000         0.0375         0.0000         0.0000         0.0000         0.0000         0.0000         0.0000         0.0000
          0.0000         0.0000         0.0000         0.0000
          0.3750         0.1250         0.0000         0.0000         0.0000         0.0000         0.0000         0.0000         0.0000         0.0000         0.0000         0.0000         0.0000         0.0000         0.0000         0.0000         0.0000         0.0000         0.0000         0.0375         0.0000         0.0000         0.0000         0.0000         0.0000         0.0000         0.0000
          0.0000         0.0000         0.0000         0.0000
          0.3750         0.2500         0.0000         0.0000         0.0000         0.0000         0.0000         0.0000         0.0000         0.0000         0.0000         0.0000         0.0000         0.0000         0.0000         0.0000         0.0000         0.0000         0.0000         0.0375         0.0000         0.0000         0.0000         0.0000         0.0000         0.0000         0.0000
          0.0000         0.0000         0.0000         0.0000
          0.5000         0.0000         0.0000         0.0000         0.0000         0.0000         0.0000         0.0000         0.0000         0.0000         0.0000         0.0000         0.0000         0.0000         0.0000         0.0000         0.0000         0.0000         0.0000         0.0500         0.0000         0.0000         0.0000         0.0000         0.0000         0.0000         0.0000
          0.0000         0.0000         0.0000         0.0000
          0.5000         0.1250         0.0000         0.0000         0.0000         0.0000         0.0000         0.0000         0.0000         0.0000         0.0000         0.0000         0.0000         0.0000         0.0000         0.0000         0.0000         0.0000         0.0000         0.0500         0.0000         0.0000         0.0000         0.0000         0.0000         0.0000         0.0000
          0.0000         0.0000         0.0000         0.0000
          0.5000         0.2500         0.0000         0.0000         0.0000         0.0000         0.0000         0.0000         0.0000         0.0000         0.0000         0.0000         0.0000         0.0000         0.0000         0.0000         0.0000         0.0000         0.0000         0.0500         0.0000         0.0000         0.0000         0.0000         0.0000         0.0000         0.0000
          0.0000         0.0000         0.0000         0.0000
          0.6250         0.0000         0.0000         0.0000         0.0000         0.0000         0.0000         0.0000         0.0000         0.0000         0.0000         0.0000         0.0000         0.0000         0.0000         0.0000         0.0000         0.0000         0.0000         0.0625         0.0000         0.0000         0.0000         0.0000         0.0000         0.0000         0.0000
          0.0000         0.0000         0.0000         0.0000
          0.6250         0.1250         0.0000         0.0000         0.0000         0.0000         0.0000         0.0000         0.0000         0.0000         0.0000         0.0000         0.0000         0.0000         0.0000         0.0000         0.0000         0.0000         0.0000         0.0625         0.0000         0.0000         0.0000         0.0000         0.0000         0.0000         0.0000
          0.0000         0.0000         0.0000         0.0000
          0.6250         0.2500         0.0000         0.0000         0.0000         0.0000         0.0000         0.0000         0.0000         0.0000         0.0000         0.0000         0.0000         0.0000         0.0000         0.0000         0.0000         0.0000         0.0000         0.0625         0.0000         0.0000         0.0000         0.0000         0.0000         0.0000         0.0000
          0.0000         0.0000         0.0000         0.0000
          0.7500         0.0000         0.0000         0.0000         0.0000         0.0000         0.0000         0.0000         0.0000         0.0000         0.0000         0.0000         0.0000         0.0000         0.0000         0.0000         0.0000         0.0000         0.0000         0.0750         0.0000         0.0000         0.0000         0.0000         0.0000         0.0000         0.0000
          0.0000         0.0000         0.0000         0.0000
          0.7500         0.1250         0.0000         0.0000         0.0000         0.0000         0.0000         0.0000         0.0000         0.0000         0.0000         0.0000         0.0000         0.0000         0.0000         0.0000         0.0000         0.0000         0.0000         0.0750         0.0000         0.0000         0.0000         0.0000         0.0000         0.0000         0.0000
          0.0000         0.0000         0.0000         0.0000
          0.7500         0.2500         0.0000         0.0000         0.0000         0.0000         0.0000         0.0000         0.0000         0.0000         0.0000         0.0000         0.0000         0.0000         0.0000         0.0000         0.0000         0.0000         0.0000         0.0750         0.0000         0.0000         0.0000         0.0000         0.0000         0.0000         0.0000
          0.0000         0.0000         0.0000         0.0000
          0.8750         0.0000         0.0000         0.0000         0.0000         0.0000         0.0000         0.0000         0.0000         0.0000         0.0000         0.0000         0.0000         0.0000         0.0000         0.0000         0.0000         0.0000         0.0000         0.0875         0.0000         0.0000         0.0000         0.0000         0.0000         0.0000         0.0000
          0.0000         0.0000         0.0000         0.0000
          0.8750         0.1250         0.0000         0.0000         0.0000         0.0000         0.0000         0.0000         0.0000         0.0000         0.0000         0.0000         0.0000         0.0000         0.0000         0.0000         0.0000         0.0000         0.0000         0.0875         0.0000         0.0000         0.0000         0.0000         0.0000         0.0000         0.0000
          0.0000         0.0000         0.0000         0.0000
          0.8750         0.2500         0.0000         0.0000         0.0000         0.0000         0.0000         0.0000         0.0000         0.0000         0.0000         0.0000         0.0000         0.0000         0.0000         0.0000         0.0000         0.0000         0.0000         0.0875         0.0000         0.0000         0.0000         0.0000         0.0000         0.0000         0.0000
          0.0000         0.0000         0.0000         0.0000
          1.0000         0.0000         0.0000         0.0000         0.0000         0.0000         0.0000         0.0000         0.0000         0.0000         0.0000         0.0000         0.0000         0.0000         0.0000         0.0000         0.0000         0.0000         0.0000         0.1000         0.0000         0.0000         0.0000         0.0000         0.0000         0.0000         0.0000
          0.0000         0.0000         0.0000         0.0000
          1.0000         0.1250         0.0000         0.0000         0.0000         0.0000         0.0000         0.0000         0.0000         0.0000         0.0000         0.0000         0.0000         0.0000         0.0000         0.0000         0.0000         0.0000         0.0000         0.1000         0.0000         0.0000         0.0000         0.0000         0.0000         0.0000         0.0000
          0.0000         0.0000         0.0000         0.0000
          1.0000         0.2500         0.0000         0.0000         0.0000         0.0000         0.0000         0.0000         0.0000         0.0000         0.0000         0.0000         0.0000         0.0000         0.0000         0.0000         0.0000         0.0000         0.0000         0.1000         0.0000         0.0000         0.0000         0.0000         0.0000         0.0000         0.0000
          0.0000         0.0000         0.0000         0.0000
          1.1250         0.0000         0.0000         0.0000         0.0000         0.0000         0.0000         0.0000         0.0000         0.0000         0.0000         0.0000         0.0000         0.0000         0.0000         0.0000         0.0000         0.0000         0.0000         0.1125         0.0000         0.0000         0.0000         0.0000         0.0000         0.0000         0.0000
          0.0000         0.0000         0.0000         0.0000
          1.1250         0.1250         0.0000         0.0000         0.0000         0.0000         0.0000         0.0000         0.0000         0.0000         0.0000         0.0000         0.0000         0.0000         0.0000         0.0000         0.0000         0.0000         0.0000         0.1125         0.0000         0.0000         0.0000         0.0000         0.0000         0.0000         0.0000
          0.0000         0.0000         0.0000         0.0000
          1.1250         0.2500         0.0000         0.0000         0.0000         0.0000         0.0000         0.0000         0.0000         0.0000         0.0000         0.0000         0.0000         0.0000         0.0000         0.0000         0.0000         0.0000         0.0000         0.1125         0.0000         0.0000         0.0000         0.0000         0.0000         0.0000         0.0000
          0.0000         0.0000         0.0000         0.0000
          1.2500         0.0000         0.0000         0.0000         0.0000         0.0000         0.0000         0.0000         0.0000         0.0000         0.0000         0.0000         0.0000         0.0000         0.0000         0.0000         0.0000         0.0000         0.0000         0.1250         0.0000         0.0000         0.0000         0.0000         0.0000         0.0000         0.0000
          0.0000         0.0000         0.0000         0.0000
          1.2500         0.1250         0.0000         0.0000         0.0000         0.0000         0.0000         0.0000         0.0000         0.0000         0.0000         0.0000         0.0000         0.0000         0.0000         0.0000         0.0000         0.0000         0.0000         0.1250         0.0000         0.0000         0.0000         0.0000         0.0000         0.0000         0.0000
          0.0000         0.0000         0.0000         0.0000
          1.2500         0.2500         0.0000         0.0000         0.0000         0.0000         0.0000         0.0000         0.0000         0.0000         0.0000         0.0000         0.0000         0.0000         0.0000         0.0000         0.0000         0.0000         0.0000         0.1250         0.0000         0.0000         0.0000         0.0000         0.0000         0.0000         0.0000
          0.0000         0.0000         0.0000         0.0000
          1.3750         0.0000         0.0000         0.0000         0.0000         0.0000         0.0000         0.0000         0.0000         0.0000         0.0000         0.0000         0.0000         0.0000         0.0000         0.0000         0.0000         0.0000         0.0000         0.1375         0.0000         0.0000         0.0000         0.0000         0.0000         0.0000         0.0000
          0.0000         0.0000         0.0000         0.0000
          1.3750         0.1250         0.0000         0.0000         0.0000         0.0000         0.0000         0.0000         0.0000         0.0000         0.0000         0.0000         0.0000         0.0000         0.0000         0.0000         0.0000         0.0000         0.0000         0.1375         0.0000         0.0000         0.0000         0.0000         0.0000         0.0000         0.0000
          0.0000         0.0000         0.0000         0.0000
          1.3750         0.2500         0.0000         0.0000         0.0000         0.0000         0.0000         0.0000         0.0000         0.0000         0.0000         0.0000         0.0000         0.0000         0.0000         0.0000         0.0000         0.0000         0.0000         0.1375         0.0000         0.0000         0.0000         0.0000         0.0000         0.0000         0.0000
          0.0000         0.0000         0.0000         0.0000
          1.5000         0.0000         0.0000         0.0000         0.0000         0.0000         0.0000         0.0000         0.0000         0.0000         0.0000         0.0000         0.0000         0.0000         0.0000         0.0000         0.0000         0.0000         0.0000         0.1500         0.0000         0.0000         0.0000         0.0000         0.0000         0.0000         0.0000
          0.0000         0.0000         0.0000         0.0000
          1.5000         0.1250         0.0000         0.0000         0.0000         0.0000         0.0000         0.0000         0.0000         0.0000         0.0000         0.0000         0.0000         0.0000         0.0000         0.0000         0.0000         0.0000         0.0000         0.1500         0.0000         0.0000         0.0000         0.0000         0.0000         0.0000         0.0000
          0.0000         0.0000         0.0000         0.0000
          1.5000         0.2500         0.0000         0.0000         0.0000         0.0000         0.0000         0.0000         0.0000         0.0000         0.0000         0.0000         0.0000         0.0000         0.0000         0.0000         0.0000         0.0000         0.0000         0.1500         0.0000         0.0000         0.0000         0.0000         0.0000         0.0000         0.0000
          0.0000         0.0000         0.0000         0.0000
          1.6250         0.0000         0.0000         0.0000         0.0000         0.0000         0.0000         0.0000         0.0000         0.0000         0.0000         0.0000         0.0000         0.0000         0.0000         0.0000         0.0000         0.0000         0.0000         0.1625         0.0000         0.0000         0.0000         0.0000         0.0000         0.0000         0.0000
          0.0000         0.0000         0.0000         0.0000
          1.6250         0.1250         0.0000         0.0000         0.0000         0.0000         0.0000         0.0000         0.0000         0.0000         0.0000         0.0000         0.0000         0.0000         0.0000         0.0000         0.0000         0.0000         0.0000         0.1625         0.0000         0.0000         0.0000         0.0000         0.0000         0.0000         0.0000
          0.0000         0.0000         0.0000         0.0000
          1.6250         0.2500         0.0000         0.0000         0.0000         0.0000         0.0000         0.0000         0.0000         0.0000         0.0000         0.0000         0.0000         0.0000         0.0000         0.0000         0.0000         0.0000         0.0000         0.1625         0.0000         0.0000         0.0000         0.0000         0.0000         0.0000         0.0000
          0.0000         0.0000         0.0000         0.0000
          1.7500         0.0000         0.0000         0.0000         0.0000         0.0000         0.0000         0.0000         0.0000         0.0000         0.0000         0.0000         0.0000         0.0000         0.0000         0.0000         0.0000         0.0000         0.0000         0.1750         0.0000         0.0000         0.0000         0.0000         0.0000         0.0000         0.0000
          0.0000         0.0000         0.0000         0.0000
          1.7500         0.1250         0.0000         0.0000         0.0000         0.0000         0.0000         0.0000         0.0000         0.0000         0.0000         0.0000         0.0000         0.0000         0.0000         0.0000         0.0000         0.0000         0.0000         0.1750         0.0000         0.0000         0.0000         0.0000         0.0000         0.0000         0.0000
          0.0000         0.0000         0.0000         0.0000
          1.7500         0.2500         0.0000         0.0000         0.0000         0.0000         0.0000         0.0000         0.0000         0.0000         0.0000         0.0000         0.0000         0.0000         0.0000         0.0000         0.0000         0.0000         0.0000         0.1750         0.0000         0.0000         0.0000         0.0000         0.0000         0.0000         0.0000
          0.0000         0.0000         0.0000         0.0000
          1.8750         0.0000         0.0000         0.0000         0.0000         0.0000         0.0000         0.0000         0.0000         0.0000         0.0000         0.0000         0.0000         0.0000         0.0000         0.0000         0.0000         0.0000         0.0000         0.1875         0.0000         0.0000         0.0000         0.0000         0.0000         0.0000         0.0000
          0.0000         0.0000         0.0000         0.0000
          1.8750         0.1250         0.0000         0.0000         0.0000         0.0000         0.0000         0.0000         0.0000         0.0000         0.0000         0.0000         0.0000         0.0000         0.0000         0.0000         0.0000         0.0000         0.0000         0.1875         0.0000         0.0000         0.0000         0.0000         0.0000         0.0000         0.0000
          0.0000         0.0000         0.0000         0.0000
          1.8750         0.2500         0.0000         0.0000         0.0000         0.0000         0.0000         0.0000         0.0000         0.0000         0.0000         0.0000         0.0000         0.0000         0.0000         0.0000         0.0000         0.0000         0.0000         0.1875         0.0000         0.0000         0.0000         0.0000         0.0000         0.0000         0.0000
          0.0000         0.0000         0.0000         0.0000
          2.0000         0.0000         0.0000         0.0000         0.0000         0.0000         0.0000         0.0000         0.0000         0.0000         0.0000         0.0000         0.0000         0.0000         0.0000         0.0000         0.0000         0.0000         0.0000         0.2000         0.0000         0.0000         0.0000         0.0000         0.0000         0.0000         0.0000
          0.0000         0.0000         0.0000         0.0000
          2.0000         0.1250         0.0000         0.0000         0.0000         0.0000         0.0000         0.0000         0.0000         0.0000         0.0000         0.0000         0.0000         0.0000         0.0000         0.0000         0.0000         0.0000         0.0000         0.2000         0.0000         0.0000         0.0000         0.0000         0.0000         0.0000         0.0000
          0.0000         0.0000         0.0000         0.0000
          2.0000         0.2500         0.0000         0.0000         0.0000         0.0000         0.0000         0.0000         0.0000         0.0000         0.0000         0.0000         0.0000         0.0000         0.0000         0.0000         0.0000         0.0000         0.0000         0.2000         0.0000         0.0000         0.0000         0.0000         0.0000         0.0000         0.0000
          0.0000         0.0000         0.0000         0.0000
          2.1250         0.0000         0.0000         0.0000         0.0000         0.0000         0.0000         0.0000         0.0000         0.0000         0.0000         0.0000         0.0000         0.0000         0.0000         0.0000         0.0000         0.0000         0.0000         0.2125         0.0000         0.0000         0.0000         0.0000         0.0000         0.0000         0.0000
          0.0000         0.0000         0.0000         0.0000
          2.1250         0.1250         0.0000         0.0000         0.0000         0.0000         0.0000         0.0000         0.0000         0.0000         0.0000         0.0000         0.0000         0.0000         0.0000         0.0000         0.0000         0.0000         0.0000         0.2125         0.0000         0.0000         0.0000         0.0000         0.0000         0.0000         0.0000
          0.0000         0.0000         0.0000         0.0000
          2.1250         0.2500         0.0000         0.0000         0.0000         0.0000         0.0000         0.0000         0.0000         0.0000         0.0000         0.0000         0.0000         0.0000         0.0000         0.0000         0.0000         0.0000         0.0000         0.2125         0.0000         0.0000         0.0000         0.0000         0.0000         0.0000         0.0000
          0.0000         0.0000         0.0000         0.0000
          2.2500         0.0000         0.0000         0.0000         0.0000         0.0000         0.0000         0.0000         0.0000         0.0000         0.0000         0.0000         0.0000         0.0000         0.0000         0.0000         0.0000         0.0000         0.0000         0.2250         0.0000         0.0000         0.0000         0.0000         0.0000         0.0000         0.0000
          0.0000         0.0000         0.0000         0.0000
          2.2500         0.1250         0.0000         0.0000         0.0000         0.0000         0.0000         0.0000         0.0000         0.0000         0.0000         0.0000         0.0000         0.0000         0.0000         0.0000         0.0000         0.0000         0.0000         0.2250         0.0000         0.0000         0.0000         0.0000         0.0000         0.0000         0.0000
          0.0000         0.0000         0.0000         0.0000
          2.2500         0.2500         0.0000         0.0000         0.0000         0.0000         0.0000         0.0000         0.0000         0.0000         0.0000         0.0000         0.0000         0.0000         0.0000         0.0000         0.0000         0.0000         0.0000         0.2250         0.0000         0.0000         0.0000         0.0000         0.0000         0.0000         0.0000
          0.0000         0.0000         0.0000         0.0000
          2.3750         0.0000         0.0000         0.0000         0.0000         0.0000         0.0000         0.0000         0.0000         0.0000         0.0000         0.0000         0.0000         0.0000         0.0000         0.0000         0.0000         0.0000         0.0000         0.2375         0.0000         0.0000         0.0000         0.0000         0.0000         0.0000         0.0000
          0.0000         0.0000         0.0000         0.0000
          2.3750         0.1250         0.0000         0.0000         0.0000         0.0000         0.0000         0.0000         0.0000         0.0000         0.0000         0.0000         0.0000         0.0000         0.0000         0.0000         0.0000         0.0000         0.0000         0.2375         0.0000         0.0000         0.0000         0.0000         0.0000         0.0000         0.0000
          0.0000         0.0000         0.0000         0.0000
          2.3750         0.2500         0.0000         0.0000         0.0000         0.0000         0.0000         0.0000         0.0000         0.0000         0.0000         0.0000         0.0000         0.0000         0.0000         0.0000         0.0000         0.0000         0.0000         0.2375         0.0000         0.0000         0.0000         0.0000         0.0000         0.0000         0.0000
          0.0000         0.0000         0.0000         0.0000
          2.5000         0.0000         0.0000         0.0000         0.0000         0.0000         0.0000         0.0000         0.0000         0.0000         0.0000         0.0000         0.0000         0.0000         0.0000         0.0000         0.0000         0.0000         0.0000         0.2500         0.0000         0.0000         0.0000         0.0000         0.0000         0.0000         0.0000
          0.0000         0.0000         0.0000         0.0000
          2.5000         0.1250         0.0000         0.0000         0.0000         0.0000         0.0000         0.0000         0.0000         0.0000         0.0000         0.0000         0.0000         0.0000         0.0000         0.0000         0.0000         0.0000         0.0000         0.2500         0.0000         0.0000         0.0000         0.0000         0.0000         0.0000         0.0000
          0.0000         0.0000         0.0000         0.0000
          2.5000         0.2500         0.0000         0.0000         0.0000         0.0000         0.0000         0.0000         0.0000         0.0000         0.0000         0.0000         0.0000         0.0000         0.0000         0.0000         0.0000         0.0000         0.0000         0.2500         0.0000         0.0000         0.0000         0.0000         0.0000         0.0000         0.0000
          0.0000         0.0000         0.0000         0.0000